 980
Frame: 1, Step: 1,  i =       30, E =     -2260.5534742032
C           1.334586      -0.289081       0.057502
C           0.634720       0.822827      -0.477032
C           0.625988      -1.373217       0.587068
C           2.826952      -0.254771       0.073316
H           1.197566       1.694629      -0.832108
H           1.170987      -2.236414       1.009045
H           4.455233      -1.086473       0.711839
O           3.443338      -1.178762       0.827021
O           3.466161       0.567932      -0.599213
C          -1.463503      -0.310022      -0.019333
C          -0.752827      -1.395491       0.535624
C          -0.746736       0.821247      -0.535715
C          -2.952010      -0.308999      -0.035826
H          -1.328019      -2.197948       0.971095
H          -1.274401       1.594344      -1.046362
H          -4.517384       0.673926      -0.590657
O          -3.487461       0.720666      -0.700090
O          -3.620836      -1.156075       0.566124
C           0.230207       0.279464       3.520120
C          -0.502681       1.323576       2.928509
C          -0.454235      -0.818985       4.094960
C           1.713926       0.281460       3.503318
H           0.051596       2.134419       2.405310
H           0.097076      -1.665093       4.504084
H           3.255702      -0.688485       4.187633
O           2.267477      -0.712522       4.266790
O           2.392462       1.154341       2.915808
C          -2.566434       0.190780       3.525834
C          -1.828536      -0.841053       4.095686
C          -1.882052       1.302222       2.929638
C          -4.031870       0.108581       3.498004
H          -2.374436      -1.692045       4.509385
H          -2.389546       2.078507       2.397171
H          -5.611203       1.086479       2.933874
O          -4.621845       1.140140       2.858340
O          -4.715261      -0.765566       4.079816
C          -0.807910       0.752112       6.963329
C          -1.533363       1.849064       6.457664
C          -1.503881      -0.378597       7.456357
C           0.685266       0.751490       6.937881
H          -1.030932       2.715700       6.061586
H          -0.932705      -1.185551       7.877337
H           2.267877      -0.272168       7.444988
O           1.246990      -0.258903       7.576543
O           1.317375       1.639775       6.304434
C          -3.619639       0.637646       6.897303
C          -2.895195      -0.437237       7.451118
C          -2.921409       1.786305       6.377878
C          -5.077317       0.601133       6.925121
H          -3.447850      -1.271677       7.836923
H          -3.468671       2.619344       5.954697
H          -6.699288       1.546694       6.369215
O          -5.694128       1.597099       6.261684
O          -5.730221      -0.243379       7.589140
C          -1.702324       1.093308      10.454239
C          -2.390600       2.162330       9.883222
C          -2.391089       0.005141      11.017673
C          -0.197619       1.121720      10.476974
H          -1.865761       3.011210       9.450573
H          -1.817358      -0.813777      11.399506
H           1.467927       0.252285      11.053969
O           0.435470       0.142491      11.149815
O           0.449089       2.014633       9.866853
C          -4.518787       1.053147      10.441042
C          -3.788596      -0.004818      11.027858
C          -3.803293       2.133041       9.846783
C          -5.995740       1.048607      10.475883
H          -4.342721      -0.843092      11.421389
H          -4.377616       2.969138       9.473804
H          -7.608457       1.981865       9.943066
O          -6.578842       2.052181       9.837035
O          -6.669594       0.154604      11.042139
C          -2.588470       1.658041      13.934293
C          -3.283369       2.770683      13.389775
C          -3.307982       0.603046      14.469603
C          -1.106836       1.624855      13.939586
H          -2.697050       3.578146      12.979467
H          -2.808597      -0.264379      14.923446
H           0.445310       0.676500      14.576948
O          -0.563440       0.624315      14.585147
O          -0.399009       2.494622      13.320356
C          -5.391253       1.630647      13.820775
C          -4.711285       0.591644      14.397532
C          -4.658788       2.741687      13.325044
C          -6.884568       1.621438      13.861033
H          -5.252148      -0.254805      14.838437
H          -5.219170       3.595403      12.960312
H          -8.477457       2.644328      13.275634
O          -7.482876       2.636646      13.207378
O          -7.567885       0.727056      14.388308
C          -4.586301       4.784646       0.091695
C          -5.263474       5.869147      -0.548787
C          -5.298983       3.736426       0.645280
C          -3.121605       4.773208       0.061460
H          -4.689527       6.704076      -0.936660
H          -4.797360       2.921249       1.153717
H          -1.579634       3.757829       0.562981
O          -2.563789       3.737917       0.705744
O          -2.388324       5.622935      -0.491626
C          -7.378569       4.766654      -0.098793
C          -6.695268       3.715206       0.551958
C          -6.653050       5.828196      -0.657254
C          -8.874184       4.689204      -0.128650
H          -7.273801       2.911295       0.996640
H          -7.209180       6.609286      -1.162947
H         -10.469039       5.551243      -0.749840
O          -9.461991       5.623682      -0.889143
O          -9.534216       3.813930       0.489223
C          -5.662358       5.083337       3.565832
C          -6.344120       6.199302       2.971947
C          -6.393908       3.978057       4.068668
C          -4.179322       5.137762       3.568788
H          -5.738070       7.061242       2.690090
H          -5.912201       3.091969       4.497525
H          -2.531216       4.263098       4.220860
O          -3.552732       4.229089       4.312768
O          -3.556464       6.017812       2.917375
C          -8.451788       5.136760       3.449474
C          -7.800427       4.043955       4.011982
C          -7.731202       6.218100       2.905099
C          -9.942871       5.129097       3.448069
H          -8.421262       3.251588       4.387727
H          -8.263206       7.097869       2.589762
H         -11.554175       6.042747       2.820728
O         -10.531396       6.096895       2.746015
O         -10.585261       4.285938       4.113274
C          -6.660954       5.554640       7.038438
C          -7.329542       6.639075       6.463615
C          -7.413481       4.477379       7.578629
C          -5.164830       5.580569       7.090284
H          -6.719755       7.451353       6.095003
H          -6.884087       3.685432       8.086761
H          -3.624474       4.616791       7.813761
O          -4.601650       4.725008       7.974267
O          -4.545654       6.421947       6.401813
C          -9.468510       5.576458       6.924783
C          -8.799396       4.514404       7.521622
C          -8.708433       6.655726       6.396863
C         -10.939768       5.601122       6.956888
H          -9.298762       3.692846       8.008006
H          -9.254862       7.506852       5.995832
H         -12.515718       6.611490       6.433002
O         -11.503450       6.693554       6.370836
O         -11.608031       4.704629       7.483044
C          -7.528861       6.132070      10.444946
C          -8.258571       7.159205       9.813981
C          -8.245174       5.071362      11.046358
C          -6.053795       6.157444      10.484591
H          -7.725060       7.948703       9.298870
H          -7.694860       4.286644      11.566417
H          -4.483874       5.210213      11.156288
O          -5.520277       5.230254      11.255418
O          -5.405072       7.033312       9.899929
C         -10.346404       6.037603      10.353744
C          -9.638775       5.031574      11.021209
C          -9.649038       7.077677       9.748531
C         -11.833572       6.042156      10.341524
H         -10.190186       4.212077      11.483600
H         -10.152510       7.830377       9.192268
H         -13.419314       6.974401       9.649159
O         -12.395317       6.936988       9.527158
O         -12.454457       5.278148      11.080119
C          -8.449372       6.616903      13.922608
C          -9.179932       7.643395      13.268815
C          -9.172698       5.573075      14.524293
C          -6.988031       6.612736      13.933416
H          -8.635560       8.410604      12.805252
H          -8.643673       4.750027      15.005375
H          -5.404006       5.744662      14.593450
O          -6.434290       5.708968      14.711159
O          -6.282815       7.426484      13.241682
C         -11.276566       6.560863      13.841127
C         -10.563820       5.516557      14.478997
C         -10.567952       7.615546      13.238681
C         -12.724669       6.512594      13.801125
H         -11.073997       4.724520      14.973947
H         -11.062342       8.460060      12.789303
H         -14.323354       7.376314      13.116954
O         -13.295224       7.426095      13.026301
O         -13.374451       5.681962      14.506323
C          10.926557      -0.165909       0.033023
C          10.227012       0.934120      -0.561016
C          10.225871      -1.209213       0.664951
C          12.416439      -0.148689       0.035084
H          10.755165       1.782201      -0.963109
H          10.776622      -2.032267       1.120939
H          14.001242      -1.061276       0.701046
O          12.978930      -1.142220       0.723132
O          13.109284       0.728001      -0.549351
C           8.146688      -0.200541       0.017615
C           8.825804      -1.215050       0.662472
C           8.835268       0.890690      -0.536984
C           6.686408      -0.267040      -0.035646
H           8.276578      -2.054641       1.145292
H           8.267390       1.671252      -1.027678
H           5.072791       0.590480      -0.666784
O           6.090994       0.702891      -0.731234
O           6.030392      -1.130065       0.586930
C           9.797489       0.291963       3.640969
C           9.133908       1.374769       3.012175
C           9.097505      -0.821107       4.175823
C          11.309497       0.260744       3.630641
H           9.668177       2.171834       2.579592
H           9.624095      -1.709575       4.576430
H          12.896778      -0.585008       4.324357
O          11.896198      -0.555462       4.504513
O          11.961324       0.997507       2.868296
C           7.041723       0.279075       3.486805
C           7.706199      -0.800980       4.087116
C           7.754479       1.372134       2.938136
C           5.564190       0.322056       3.514787
H           7.144461      -1.642673       4.472543
H           7.202736       2.217320       2.565343
H           3.982871       1.247031       2.876110
O           5.008520       1.322918       2.819773
O           4.914904      -0.597884       4.069088
C           8.815750       0.691091       6.972414
C           8.144947       1.782435       6.379779
C           8.102833      -0.390617       7.513272
C          10.291673       0.723529       6.986941
H           8.677036       2.627755       5.996258
H           8.646459      -1.195422       7.984319
H          11.891203      -0.197950       7.674397
O          10.870457      -0.253491       7.732818
O          10.959823       1.617186       6.417032
C           6.038675       0.721932       6.896953
C           6.713433      -0.405391       7.444514
C           6.741225       1.809521       6.350188
C           4.561202       0.658028       6.832899
H           6.122925      -1.199913       7.894136
H           6.200721       2.656747       5.972233
H           2.954592       1.542421       6.240716
O           3.961785       1.672699       6.202665
O           3.930305      -0.317770       7.311608
C           7.923988       1.156847      10.430838
C           7.249717       2.188359       9.776358
C           7.196865       0.090643      11.022564
C           9.405065       1.138596      10.431137
H           7.759374       2.995806       9.280298
H           7.741495      -0.742000      11.454283
H          11.010531       0.207630      11.047211
O           9.995860       0.101667      11.086211
O          10.070143       2.015285       9.815602
C           5.121385       1.078455      10.282139
C           5.814333       0.064117      10.967467
C           5.823615       2.152916       9.718134
C           3.624849       1.074199      10.303408
H           5.300261      -0.789036      11.420364
H           5.343654       2.977189       9.195280
H           2.025178       2.040377       9.722097
O           3.049362       2.069653       9.630443
O           2.965760       0.185078      10.918659
C           7.068406       1.704794      13.901661
C           6.363052       2.732118      13.291083
C           6.352074       0.619529      14.468615
C           8.554106       1.738268      13.880719
H           6.868241       3.613385      12.904536
H           6.867455      -0.223606      14.911895
H          10.189481       0.746843      14.388281
O           9.156942       0.753303      14.499100
O           9.129803       2.623271      13.225121
C           4.235809       1.611949      13.831515
C           4.967543       0.585266      14.469009
C           4.965610       2.672781      13.246262
C           2.768200       1.606169      13.789302
H           4.464859      -0.198115      14.982579
H           4.421765       3.453963      12.741156
H           1.135311       2.475337      13.113230
O           2.178286       2.507601      12.963072
O           2.096502       0.786667      14.463938
C           5.019731       4.703579      -0.061148
C           4.359889       5.790902      -0.592048
C           4.301111       3.634751       0.540103
C           6.517001       4.731554      -0.012590
H           4.876757       6.590392      -1.099654
H           4.827358       2.793242       0.938011
H           8.079472       3.854996       0.751995
O           7.068591       3.920809       0.887433
O           7.171769       5.498467      -0.740544
C           2.249066       4.732054      -0.014492
C           2.908428       3.614149       0.513601
C           2.992261       5.804207      -0.552690
C           0.764852       4.702059      -0.064589
H           2.367643       2.813570       0.958489
H           2.438619       6.703966      -0.904896
H          -0.888483       5.594065      -0.534963
O           0.136541       5.696928      -0.690313
O           0.146603       3.792305       0.504981
C           3.971622       5.206656       3.521916
C           3.266350       6.275664       2.950628
C           3.261436       4.116123       4.013326
C           5.456007       5.191299       3.463934
H           3.808399       7.146576       2.561311
H           3.765068       3.286886       4.474624
H           7.050934       4.170029       4.047166
O           6.034430       4.167728       4.143262
O           6.159111       5.989894       2.805293
C           1.176052       5.192258       3.441230
C           1.873122       4.096365       4.018177
C           1.887527       6.274708       2.906386
C          -0.285481       5.178080       3.456442
H           1.335674       3.287345       4.465997
H           1.357325       7.157247       2.564673
H          -1.912439       6.114761       2.975542
O          -0.903985       6.211720       2.863956
O          -0.943101       4.280681       4.059401
C           2.916342       5.620557       6.842822
C           2.199919       6.736458       6.275357
C           2.208785       4.596395       7.511579
C           4.393169       5.600330       6.808615
H           2.783912       7.512861       5.790648
H           2.780850       3.767220       7.963260
H           6.006001       4.733463       7.586690
O           4.979054       4.703346       7.624740
O           5.071007       6.408780       6.128071
C           0.107979       5.606015       6.966806
C           0.825290       4.581661       7.608349
C           0.810080       6.689055       6.353399
C          -1.352866       5.582232       7.031753
H           0.272731       3.835552       8.204029
H           0.203228       7.513453       5.980488
H          -2.934135       6.554657       6.444085
O          -1.919972       6.600763       6.353305
O          -2.005470       4.678972       7.648573
C           2.112631       6.059735      10.456202
C           1.399070       7.124647       9.882980
C           1.415769       4.959221      10.939700
C           3.578300       6.165648      10.463667
H           1.884771       7.973040       9.435947
H           1.976676       4.129220      11.344773
H           5.209321       5.407483      11.228370
O           4.198286       5.296676      11.303396
O           4.174665       6.982288       9.707440
C          -0.705991       6.036981      10.377954
C           0.014321       4.926524      10.880862
C           0.019119       7.118737       9.872581
C          -2.183786       6.014681      10.426658
H          -0.511010       4.084070      11.320668
H          -0.490572       7.976357       9.514339
H          -3.760135       7.048983       9.929010
O          -2.760307       7.034616       9.783653
O          -2.843206       5.101422      10.980904
C           1.203934       6.499113      13.787893
C           0.534100       7.588899      13.262450
C           0.472714       5.434671      14.343971
C           2.685273       6.516732      13.765957
H           1.064636       8.368086      12.746523
H           1.030740       4.539520      14.662210
H           4.249193       5.581617      14.530976
O           3.233593       5.560342      14.526848
O           3.361197       7.387061      13.179577
C          -1.614456       6.588099      13.854384
C          -0.919195       5.461817      14.342742
C          -0.848062       7.637289      13.303800
C          -3.103145       6.569967      13.851574
H          -1.429043       4.615258      14.779733
H          -1.383673       8.503160      12.860901
H          -4.710227       7.393049      13.164452
O          -3.695216       7.499483      13.080861
O          -3.762273       5.721312      14.498904
X           0.978786       0.276961       3.639806
X          -0.136073      -1.345863       4.569403
X          -4.288891       2.750808      -6.638937
X          -4.863740      -2.608988       6.069499
X         -11.887881       1.786613       2.494924
X          -4.097465      -4.349803       3.052156
X           7.847423      -3.567680       2.787543
X         -13.545035       4.819831       0.187235
X           5.348455      -5.046224      -3.721812
X          -4.900971       5.183767       3.587714
X          14.047013      -4.563758      -0.220794
X          -4.366543       0.687558       6.999970
X           2.770118       4.084021       7.898436
X           7.052023      -3.744934       6.416575
X          11.699694      -4.208866      -0.272314
X           2.184614      -4.422488      -0.399496
X           7.080629      -3.078067       6.287932
X          -7.859412      -0.091704       7.842730
X           1.467804       0.057524      -7.407569
X           6.028860      -0.582192       0.579688
X           6.429127      -4.899726      -0.460819
X           2.560414      -2.647236      -6.010371
X          -8.936126       0.467838      -3.667261
X          -5.083638       1.093691       2.814534
X          -0.442697      -1.015805      -3.038446
X           1.671289      -0.166757       7.678930
X          -8.118065       3.006790      -6.433579
X          -3.273086       2.349402       6.156814
X         -11.665441       3.883103      -6.782363
X          -0.382782       5.776293       7.020216
X          -2.064444      -3.421000       6.413226
X          10.389921      -0.797773       0.270543
X           9.727098      -5.279167      -4.126435
X           3.700994       4.608057       3.803175
X          11.033436      -1.848818      -6.183099
X           8.499051       0.198888       7.343242
X           8.421947      -0.829853       4.017075
X          -4.019326      -3.073363       2.753623
X          -7.187479       3.042749       0.904721
X          -6.578442       0.535766      -0.193466
X           8.816447      -4.542836      -0.045610
X          -0.259805      -0.839087       0.860179
X         -12.333035       3.922003       0.530731
X          -2.702885       0.510942      -4.460084
X          10.148780      -2.749746      -6.092355
X          11.327394      -2.326393      -2.577085
X         -14.805979       4.444030       0.626342
X          -5.276648       3.293934      -6.694826
X           7.163190      -0.228278      -7.543887
X         -13.853958       4.066206      -2.902003
X          -8.476162      -0.379274       8.070095
X          -4.202670      -1.975243      -6.304239
X           2.205849      -4.066860      -0.907041
X           3.903594      -1.816208      -2.447773
X           1.626109       0.972344      -4.256505
X           2.481108       3.144563       0.911315
X          -2.148641       3.623076       0.691400
X          -6.113355      -3.079605       2.732568
X           7.369322      -4.955866      -7.456000
X         -10.943605       1.360192      -1.010018
X          -6.943360      -0.607738       4.332802
X          -1.839810      -1.533544      -6.365057
X          -7.150929       4.109665       0.301287
X           4.124331       1.389110       6.540194
X           3.508694      -3.108312       2.548840
X          -1.875430       3.744724      -2.747438
X           8.130293      -0.695346      -3.451245
X           9.251754      -1.020007       0.701881
X           7.463050      -0.086919       3.945861
X          -1.024726       1.004351       2.898782
X         -10.054068       1.004854      -4.163752
X          -4.247638      -3.897119      -4.296758
X           0.424893      -2.663718      -5.969092
X          -8.460249       3.539574      -3.296210
X          -7.174877       0.680720      -7.687592
X          -2.063178       3.828136      -6.928287
X          -6.773765       4.102571       7.850081
X          -3.008406       4.239456      -3.445371
X           7.607042      -3.321155       6.472029
X           0.556574      -3.830883       2.802170
X           6.376083      -0.946224       7.919044
X          -6.558666      -1.003483       0.440251
X           1.109167       3.325968      -2.602439
X          -9.370333       3.954476       0.311152
X          -2.788032       3.309634       0.820490
X          -7.471889       0.651579       2.922958
X          -1.297742       0.403905       7.459217
X         -10.013729       5.647306       6.994189
X           0.405838       0.543499      -7.753264
X          -7.062285      -1.515255      -6.620778
X          -8.186718       0.099510      -7.370841
X           4.811330      -1.958861      -6.571285
X          -6.959713      -2.543050       6.110303
X           5.507736      -4.374718       3.052586
X           6.396308      -1.547690      -2.886924
X         -10.495264       3.079984      -6.390280
X          -7.906404       0.970828      -4.153402
X           0.260257       3.638786       0.803522
X          -0.475291       0.880251      -4.440462
X          -1.813882      -0.567728      -7.704022
X           0.825411       1.328824      -1.075131
X          16.086695      -5.382753      -6.770555
X         -12.628605       4.364812      -3.400416
X          -2.796896      -1.721875      -2.737325
X          -6.538859       0.886689      -0.722233
X           5.057248       1.020039       3.065482
X          -5.566545       1.539586       6.678678
X         -10.505350       3.354361      -6.044006
X          12.098145      -4.724856      -4.234942
X           0.850958      -0.651991       0.362719
X         -11.212273       4.522395       7.784949
X          -4.206604       0.736028      -0.634398
X           3.633323       0.758475      -0.548944
X           6.947193      -1.132568      -2.826597
X           1.923204      -0.130466       0.000070
X          -9.172750       5.187075       3.488455
X           0.687999       4.158593       7.913771
X           0.372187      -3.691325       6.395638
X         -10.781651       1.343771       3.097937
X          12.742125      -5.076657      -4.194338
X           4.432873       0.155541      -4.050659
X          -4.148960      -0.961977       0.624237
X          -1.801827       3.425668      -3.047497
X          -5.526598      -0.070275       7.204740
X          10.650960      -5.328514      -7.070890
X           1.135717       1.136121       6.309748
X           1.709213       1.526692       6.365942
X          10.329355      -1.872967       0.868762
X          -4.444417       0.724348       2.827394
X          -0.737517       3.971309       4.127326
X          -9.898941       2.960338      -6.100615
X           4.380724       2.225734      -6.040226
X          -4.593315       5.188453       7.702686
X          -1.792182       0.095918      -7.845823
X         -11.743146       4.775375       7.605136
X          11.100491      -2.157657      -6.608902
X          -2.185057      -0.425190       3.648572
X           1.569826       3.463468       4.226470
X          -7.554986       3.416971      -6.359874
X          11.144040      -4.215413      -0.562892
X           0.118275      -4.803921      -3.596062
X           1.143044       3.638052      -3.155397
X           3.418451       2.746433      -2.614751
X           3.941907      -1.487951      -2.950994
X          -7.879772       4.564578       7.299870
X          -3.931201       4.835830       7.803000
X           1.573005      -4.328040      -0.672880
X          -4.805791      -0.487373      -7.478823
X          -1.872788      -2.203114      -6.229752
X          -4.503854       1.048396       3.113013
X          -0.528494      -2.296425      -2.633261
X          -4.831953      -1.558811      -6.275657
X         -11.445697       3.467102      -3.260390
X          -0.127313       0.827185       3.412651
X           8.382756      -3.828627       2.970402
X           7.037954      -3.441747       6.815306
X          13.044687      -5.067448      -7.498047
X           5.350795      -0.261800      -7.492764
X           3.080538       0.355091      -0.625468
X          -5.719581      -0.193921      -4.019150
X          -4.088449      -3.970439      -0.170248
X          -7.916551       1.530471       6.449121
X          -2.203707      -0.384969       7.461950
X          -2.199750      -1.394642       4.503747
X           5.051359       1.389921       2.559954
X           5.602871      -3.093441       2.633521
X         -14.138641       4.701497       7.240644
X           2.638495      -2.656596       6.049782
X           3.095837      -4.973556      -4.076445
X         -11.822522       1.784651       6.519579
X         -14.201932       5.000532       7.556609
X           2.543269       4.296063       4.211007
X          -5.723557       0.467081      -4.168963
X          11.813555      -4.555388      -0.509985
X          13.613021      -5.093624      -7.178995
X          -5.698539       5.725688       6.999833
X          -3.558617       0.398616      -0.656454
X          -3.337873       0.188946       3.550601
X          -6.225051       2.645333      -2.645027
X          -0.273883       2.814395      -6.397202
X         -13.388741       4.633624       4.239507
X           4.535321      -1.539448      -2.662922
X          -4.223781       3.635676      -3.472333
X          -8.864464       4.021381       7.861993
X           7.441214      -0.403558       3.501785
X          -3.712833       4.360569       3.885389
X         -10.844328       3.352016      -2.968759
X          -5.524839       0.208876       7.618414
X           4.459046      -3.627096      -0.835491
X           4.480479       4.180143       0.117833
X           3.691921      -1.113051       0.557252
X           4.443132       1.079418       2.783274
X           6.986207      -0.166730      -4.135413
X          -2.621322      -3.562535       6.769737
X          -8.448627       1.741211       6.232974
X           1.132777       3.977051      -2.784966
X          -1.824781      -0.288747      -7.360661
X          -6.097419       3.920366      -2.944262
X          -0.268452      -1.223372       0.479799
X          -4.083477      -4.080978       3.528747
X           2.515764       0.625676      -7.699797
X           4.064557       0.235091       7.644485
X          10.195140      -3.776296       2.894887
X          -3.604458       0.693297      -0.331934
X          -3.738033       3.977862       4.366041
X          -2.428810      -0.171609      -7.640497
X          -2.148246       4.944645       7.569992
X          -4.783341      -1.870628      -6.568478
X          10.793085      -3.873353       3.156482
X           4.147045       1.081436       6.216841
X           5.382166      -1.991874      -6.254602
X          -5.547966      -0.468017       7.709235
X          10.678587      -4.889071      -7.550642
X          -7.100311       4.064636       3.869474
X          10.649381      -5.573390      -7.504125
X           4.163843       1.730976       6.018128
X         -11.747859       3.869311       0.799712
X          -2.742046      -0.147791      -4.279983
X           8.502034      -0.862910       7.925682
X          -2.796304      -1.385062      -3.271339
X          -5.097185      -0.625431       4.138205
X           3.903994       0.379237      -4.237960
X          -5.514102       1.253812       6.355194
X           3.089096       0.607912      -0.195617
X           5.143425      -0.540230       3.725769
X          -9.033905       3.386770      -2.989087